<?xml version="1.0"?>
<VTKFile type="UnstructuredGrid" version="0.1" byte_order="LittleEndian" header_type="UInt32" compressor="vtkZLibDataCompressor">
  <UnstructuredGrid>
    <Piece NumberOfPoints="4" NumberOfCells="5">
      <CellData>
        <DataArray type="Int32" Name="my-id-1" format="ascii">
          1
          2
          3
          4
          5
        </DataArray>
        <DataArray type="Int32" Name="domain-id" format="ascii" >
          1
          2
          3
          4
          5
        </DataArray>
      </CellData>
      <Points>
        <DataArray type="Float64" Name="Points" NumberOfComponents="3" format="ascii">
          0 0 0 
          1 0 0
          1 1 0
          0 1 0
        </DataArray>
      </Points>
      <Cells>
        <DataArray type="Int64" Name="connectivity" format="ascii" >
          0 1
          1 2
          2 3
          3 0
          0 1 2 3
        </DataArray>
        <DataArray type="Int64" Name="offsets" format="ascii" >
          2
          4
          6
          8
          12
        </DataArray>
        <DataArray type="UInt8" Name="types" format="ascii">
          3
          3
          3
          3
          9
        </DataArray>
      </Cells>
    </Piece>
  </UnstructuredGrid>
</VTKFile>
