<?xml version="1.0"?>
<VTKFile type="UnstructuredGrid" version="1.0">
<UnstructuredGrid>
<Piece NumberOfPoints="4" NumberOfCells="1">
<Points>
<DataArray type="Float64" Name="nodes"  NumberOfComponents="3"  format="ascii">
0.000000e+00 0.000000e+00 0.000000e+00
1.000000e+00 0.000000e+00 0.000000e+00
0.000000e+00 1.000000e+00 0.000000e+00
1.000000e+00 1.000000e+00 0.000000e+00
</DataArray>
</Points>
<Cells>
<DataArray type="Int32" Name="connectivity" NumberOfComponents="1" format="ascii">
0 1 3 2 
</DataArray>
<DataArray type="Int32" Name="offsets" NumberOfComponents="1" format="ascii">
4
</DataArray>
<DataArray type="Int32" Name="types"  NumberOfComponents="1"  format="ascii">
9
</DataArray>
</Cells>

<PointData Scalar="phi1 phi2" Vector="phivec1 phivec2" Tensor="stress strain">
<DataArray type="Float64" Name="phi1"  NumberOfComponents="1" format="ascii">
1.000000e-01
5.000000e-01
1.000000e-01
5.000000e-01
</DataArray>
<DataArray type="Float64" Name="phi2"  NumberOfComponents="1" format="ascii">
1.500000e-01
5.400000e-01
1.300000e-01
5.200000e-01
</DataArray>
<DataArray type="Float64" Name="phivec1"  NumberOfComponents="2" format="ascii">
1.000000e-01 1.000000e-01
5.000000e-01 2.000000e-01
1.000000e-01 5.000000e-01
5.000000e-01 3.000000e-01
</DataArray>
<DataArray type="Float64" Name="phivec2"  NumberOfComponents="2" format="ascii">
1.000000e-01 5.000000e-01
2.000000e-01 4.000000e-01
3.000000e-01 3.000000e-01
4.000000e-01 2.000000e-01
</DataArray>
<DataArray type="Float64" Name="stress"  NumberOfComponents="9" format="ascii">
1.000000e-01 1.000000e-01 1.000000e-01
5.000000e-01 2.000000e-01 1.000000e-01
5.000000e-01 2.000000e-01 1.000000e-01

1.000000e-01 1.000000e-01 1.000000e-01
5.000000e-01 2.000000e-01 1.000000e-01
5.000000e-01 2.000000e-01 1.000000e-01

1.000000e-01 1.000000e-01 1.000000e-01
5.000000e-01 2.000000e-01 1.000000e-01
5.000000e-01 2.000000e-01 1.000000e-01

1.000000e-01 1.000000e-01 1.000000e-01
5.000000e-01 2.000000e-01 1.000000e-01
5.000000e-01 2.000000e-01 1.000000e-01
</DataArray>
<DataArray type="Float64" Name="strain"  NumberOfComponents="9" format="ascii">
1.000000e-01 1.000000e-01 1.000000e-01
5.000000e-01 2.500000e-01 1.000000e-01
2.000000e-01 2.000000e-01 1.000000e-01

1.000000e-01 1.000000e-01 1.000000e-01
5.000000e-01 2.500000e-01 1.800000e-01
3.000000e-01 2.000000e-01 1.000000e-01

1.000000e-01 1.000000e-01 1.000000e-01
5.000000e-01 2.000000e-01 1.900000e-01
5.000000e-01 2.000000e-01 1.000000e-01

1.000000e-01 1.000000e-01 1.200000e-01
2.000000e-01 2.000000e-01 1.000000e-01
5.000000e-01 6.000000e-01 1.300000e-01
</DataArray>
</PointData>

</Piece>
</UnstructuredGrid>
</VTKFile>
